# vtk DataFile Version 3.0
#This file was generated by the deal.II library on 2019/9/10 at 13:54:56
ASCII
DATASET UNSTRUCTURED_GRID

POINTS 8744 double
-0.146447 -0.292893 0
0 -0.292893 0
-0.146447 -0.146447 0
0 -0.146447 0
-0.292893 -0.146447 0
-0.146447 -0.146447 0
-0.292893 0 0
-0.146447 0 0
-0.146447 -0.146447 0
0 -0.146447 0
-0.146447 0 0
0 0 0
0 -0.292893 0
0.146447 -0.292893 0
0 -0.146447 0
0.146447 -0.146447 0
0 -0.146447 0
0.146447 -0.146447 0
0 0 0
0.146447 0 0
0.146447 -0.146447 0
0.292893 -0.146447 0
0.146447 0 0
0.292893 0 0
-0.292893 0 0
-0.146447 0 0
-0.292893 0.146447 0
-0.146447 0.146447 0
-0.146447 0 0
0 0 0
-0.146447 0.146447 0
0 0.146447 0
-0.146447 0.146447 0
0 0.146447 0
-0.146447 0.292893 0
0 0.292893 0
0 0 0
0.146447 0 0
0 0.146447 0
0.146447 0.146447 0
0.146447 0 0
0.292893 0 0
0.146447 0.146447 0
0.292893 0.146447 0
0 0.146447 0
0.146447 0.146447 0
0 0.292893 0
0.146447 0.292893 0
-0.258502 -0.353823 0
-0.172335 -0.362976 0
-0.21967 -0.292893 0
-0.146447 -0.292893 0
-0.353823 -0.258502 0
-0.292893 -0.21967 0
-0.362976 -0.172335 0
-0.292893 -0.146447 0
-0.362976 0.172335 0
-0.292893 0.146447 0
-0.353823 0.258502 0
-0.292893 0.21967 0
-0.258502 0.353823 0
-0.21967 0.292893 0
-0.172335 0.362976 0
-0.146447 0.292893 0
0.172335 -0.362976 0
0.258502 -0.353823 0
0.146447 -0.292893 0
0.21967 -0.292893 0
0.353823 -0.258502 0
0.362976 -0.172335 0
0.292893 -0.21967 0
0.292893 -0.146447 0
0.362976 0.172335 0
0.353823 0.258502 0
0.292893 0.146447 0
0.292893 0.21967 0
0.172335 0.362976 0
0.146447 0.292893 0
0.258502 0.353823 0
0.21967 0.292893 0
-0.198223 -0.433058 0
-0.0991117 -0.451364 0
-0.172335 -0.362976 0
-0.0861675 -0.372129 0
-0.172335 -0.362976 0
-0.0861675 -0.372129 0
-0.146447 -0.292893 0
-0.0732233 -0.292893 0
-0.0861675 -0.372129 0
-1.38778e-17 -0.381282 0
-0.0732233 -0.292893 0
0 -0.292893 0
-0.433058 -0.198223 0
-0.362976 -0.172335 0
-0.451364 -0.0991117 0
-0.372129 -0.0861675 0
-0.362976 -0.172335 0
-0.292893 -0.146447 0
-0.372129 -0.0861675 0
-0.292893 -0.0732233 0
-0.372129 -0.0861675 0
-0.292893 -0.0732233 0
-0.381282 -1.38778e-17 0
-0.292893 0 0
-0.381282 -1.38778e-17 0
-0.292893 0 0
-0.372129 0.0861675 0
-0.292893 0.0732233 0
-0.451364 0.0991117 0
-0.372129 0.0861675 0
-0.433058 0.198223 0
-0.362976 0.172335 0
-0.372129 0.0861675 0
-0.292893 0.0732233 0
-0.362976 0.172335 0
-0.292893 0.146447 0
-0.198223 0.433058 0
-0.172335 0.362976 0
-0.0991117 0.451364 0
-0.0861675 0.372129 0
-0.172335 0.362976 0
-0.146447 0.292893 0
-0.0861675 0.372129 0
-0.0732233 0.292893 0
-0.0861675 0.372129 0
-0.0732233 0.292893 0
-1.38778e-17 0.381282 0
0 0.292893 0
0.0991117 -0.451364 0
0.198223 -0.433058 0
0.0861675 -0.372129 0
0.172335 -0.362976 0
-1.38778e-17 -0.381282 0
0.0861675 -0.372129 0
0 -0.292893 0
0.0732233 -0.292893 0
0.0861675 -0.372129 0
0.172335 -0.362976 0
0.0732233 -0.292893 0
0.146447 -0.292893 0
0.433058 -0.198223 0
0.451364 -0.0991117 0
0.362976 -0.172335 0
0.372129 -0.0861675 0
0.362976 -0.172335 0
0.372129 -0.0861675 0
0.292893 -0.146447 0
0.292893 -0.0732233 0
0.372129 -0.0861675 0
0.381282 -1.38778e-17 0
0.292893 -0.0732233 0
0.292893 0 0
0.451364 0.0991117 0
0.433058 0.198223 0
0.372129 0.0861675 0
0.362976 0.172335 0
0.381282 -1.38778e-17 0
0.372129 0.0861675 0
0.292893 0 0
0.292893 0.0732233 0
0.372129 0.0861675 0
0.362976 0.172335 0
0.292893 0.0732233 0
0.292893 0.146447 0
-1.38778e-17 0.381282 0
0 0.292893 0
0.0861675 0.372129 0
0.0732233 0.292893 0
0.0991117 0.451364 0
0.0861675 0.372129 0
0.198223 0.433058 0
0.172335 0.362976 0
0.0861675 0.372129 0
0.0732233 0.292893 0
0.172335 0.362976 0
0.146447 0.292893 0
-0.292893 -0.292893 0
-0.21967 -0.292893 0
-0.292893 -0.21967 0
-0.21967 -0.21967 0
-0.21967 -0.292893 0
-0.146447 -0.292893 0
-0.21967 -0.21967 0
-0.146447 -0.21967 0
-0.292893 -0.21967 0
-0.21967 -0.21967 0
-0.292893 -0.146447 0
-0.21967 -0.146447 0
-0.21967 -0.21967 0
-0.146447 -0.21967 0
-0.21967 -0.146447 0
-0.146447 -0.146447 0
0.146447 -0.292893 0
0.21967 -0.292893 0
0.146447 -0.21967 0
0.21967 -0.21967 0
0.21967 -0.292893 0
0.292893 -0.292893 0
0.21967 -0.21967 0
0.292893 -0.21967 0
0.146447 -0.21967 0
0.21967 -0.21967 0
0.146447 -0.146447 0
0.21967 -0.146447 0
0.21967 -0.21967 0
0.292893 -0.21967 0
0.21967 -0.146447 0
0.292893 -0.146447 0
-0.292893 0.146447 0
-0.21967 0.146447 0
-0.292893 0.21967 0
-0.21967 0.21967 0
-0.21967 0.146447 0
-0.146447 0.146447 0
-0.21967 0.21967 0
-0.146447 0.21967 0
-0.292893 0.21967 0
-0.21967 0.21967 0
-0.292893 0.292893 0
-0.21967 0.292893 0
-0.21967 0.21967 0
-0.146447 0.21967 0
-0.21967 0.292893 0
-0.146447 0.292893 0
0.146447 0.146447 0
0.21967 0.146447 0
0.146447 0.21967 0
0.21967 0.21967 0
0.21967 0.146447 0
0.292893 0.146447 0
0.21967 0.21967 0
0.292893 0.21967 0
0.146447 0.21967 0
0.21967 0.21967 0
0.146447 0.292893 0
0.21967 0.292893 0
0.21967 0.21967 0
0.292893 0.21967 0
0.21967 0.292893 0
0.292893 0.292893 0
-0.382683 -0.92388 0
-0.290285 -0.95694 0
-0.366098 -0.880048 0
-0.276678 -0.908358 0
-0.332927 -0.792383 0
-0.250164 -0.813498 0
-0.316342 -0.748551 0
-0.237256 -0.767219 0
0.250164 -0.813498 0
0.332927 -0.792383 0
0.237256 -0.767219 0
0.316342 -0.748551 0
-0.859776 0.263072 0
-0.813498 0.250164 0
-0.836215 0.349513 0
-0.792383 0.332927 0
-0.813498 0.250164 0
-0.767219 0.237256 0
-0.792383 0.332927 0
-0.748551 0.316342 0
0.881921 -0.471397 0
0.92388 -0.382683 0
0.838455 -0.450016 0
0.880048 -0.366098 0
0.838455 -0.450016 0
0.880048 -0.366098 0
0.794988 -0.428636 0
0.836215 -0.349513 0
0.794988 -0.428636 0
0.836215 -0.349513 0
0.753645 -0.40839 0
0.792383 -0.332927 0
0.753645 -0.40839 0
0.792383 -0.332927 0
0.712302 -0.388145 0
0.748551 -0.316342 0
0.92388 -0.382683 0
0.95694 -0.290285 0
0.880048 -0.366098 0
0.908358 -0.276678 0
0.792383 -0.332927 0
0.813498 -0.250164 0
0.748551 -0.316342 0
0.767219 -0.237256 0
0.813498 0.250164 0
0.792383 0.332927 0
0.767219 0.237256 0
0.748551 0.316342 0
-0.382683 0.92388 0
-0.366098 0.880048 0
-0.290285 0.95694 0
-0.276678 0.908358 0
-0.349513 0.836215 0
-0.332927 0.792383 0
-0.263072 0.859776 0
-0.250164 0.813498 0
-0.332927 0.792383 0
-0.316342 0.748551 0
-0.250164 0.813498 0
-0.237256 0.767219 0
0.263072 0.859776 0
0.250164 0.813498 0
0.349513 0.836215 0
0.332927 0.792383 0
0.250164 0.813498 0
0.237256 0.767219 0
0.332927 0.792383 0
0.316342 0.748551 0
-0.471397 -0.881921 0
-0.382683 -0.92388 0
-0.450016 -0.838455 0
-0.366098 -0.880048 0
-0.450016 -0.838455 0
-0.366098 -0.880048 0
-0.428636 -0.794988 0
-0.349513 -0.836215 0
-0.428636 -0.794988 0
-0.349513 -0.836215 0
-0.40839 -0.753645 0
-0.332927 -0.792383 0
-0.40839 -0.753645 0
-0.332927 -0.792383 0
-0.388145 -0.712302 0
-0.316342 -0.748551 0
0.366098 -0.880048 0
0.450016 -0.838455 0
0.349513 -0.836215 0
0.428636 -0.794988 0
0.349513 -0.836215 0
0.428636 -0.794988 0
0.332927 -0.792383 0
0.40839 -0.753645 0
0.332927 -0.792383 0
0.40839 -0.753645 0
0.316342 -0.748551 0
0.388145 -0.712302 0
-0.690641 -6.245e-17 0
-0.646447 -5.55112e-17 0
-0.672244 0.0666464 0
-0.628141 0.0625 0
-0.672244 0.0666464 0
-0.628141 0.0625 0
-0.653848 0.133293 0
-0.609835 0.125 0
-0.836215 0.349513 0
-0.792383 0.332927 0
-0.794988 0.428636 0
-0.753645 0.40839 0
-0.792383 0.332927 0
-0.748551 0.316342 0
-0.753645 0.40839 0
-0.712302 0.388145 0
0.653848 -0.133293 0
0.672244 -0.0666464 0
0.609835 -0.125 0
0.628141 -0.0625 0
0.672244 -0.0666464 0
0.690641 -6.245e-17 0
0.628141 -0.0625 0
0.646447 -5.55112e-17 0
0.880048 0.366098 0
0.838455 0.450016 0
0.836215 0.349513 0
0.794988 0.428636 0
0.836215 0.349513 0
0.794988 0.428636 0
0.792383 0.332927 0
0.753645 0.40839 0
0.792383 0.332927 0
0.753645 0.40839 0
0.748551 0.316342 0
0.712302 0.388145 0
0.690641 -6.245e-17 0
0.672244 0.0666464 0
0.646447 -5.55112e-17 0
0.628141 0.0625 0
0.672244 0.0666464 0
0.653848 0.133293 0
0.628141 0.0625 0
0.609835 0.125 0
0.606332 0.417474 0
0.579054 0.484625 0
0.571472 0.396237 0
0.54868 0.461063 0
0.571472 0.396237 0
0.54868 0.461063 0
0.536612 0.375 0
0.518306 0.4375 0
0.54868 0.461063 0
0.525888 0.525888 0
0.518306 0.4375 0
0.5 0.5 0
-0.471397 0.881921 0
-0.450016 0.838455 0
-0.382683 0.92388 0
-0.366098 0.880048 0
-0.450016 0.838455 0
-0.428636 0.794988 0
-0.366098 0.880048 0
-0.349513 0.836215 0
-0.428636 0.794988 0
-0.40839 0.753645 0
-0.349513 0.836215 0
-0.332927 0.792383 0
-0.40839 0.753645 0
-0.388145 0.712302 0
-0.332927 0.792383 0
-0.316342 0.748551 0
0.349513 0.836215 0
0.332927 0.792383 0
0.428636 0.794988 0
0.40839 0.753645 0
0.332927 0.792383 0
0.316342 0.748551 0
0.40839 0.753645 0
0.388145 0.712302 0
0.417474 0.606332 0
0.396237 0.571472 0
0.484625 0.579054 0
0.461063 0.54868 0
0.396237 0.571472 0
0.375 0.536612 0
0.461063 0.54868 0
0.4375 0.518306 0
0.461063 0.54868 0
0.4375 0.518306 0
0.525888 0.525888 0
0.5 0.5 0
-0.881921 -0.471397 0
-0.838455 -0.450016 0
-0.92388 -0.382683 0
-0.880048 -0.366098 0
-0.838455 -0.450016 0
-0.794988 -0.428636 0
-0.880048 -0.366098 0
-0.836215 -0.349513 0
-0.794988 -0.428636 0
-0.753645 -0.40839 0
-0.836215 -0.349513 0
-0.792383 -0.332927 0
-0.753645 -0.40839 0
-0.712302 -0.388145 0
-0.792383 -0.332927 0
-0.748551 -0.316342 0
-0.92388 -0.382683 0
-0.880048 -0.366098 0
-0.95694 -0.290285 0
-0.908358 -0.276678 0
-0.836215 -0.349513 0
-0.792383 -0.332927 0
-0.859776 -0.263072 0
-0.813498 -0.250164 0
-0.792383 -0.332927 0
-0.748551 -0.316342 0
-0.813498 -0.250164 0
-0.767219 -0.237256 0
-0.448223 -0.448223 0
-0.392195 -0.461953 0
-0.422335 -0.422335 0
-0.369543 -0.433776 0
-0.392195 -0.461953 0
-0.336167 -0.475682 0
-0.369543 -0.433776 0
-0.316751 -0.445217 0
-0.125 -0.609835 0
-0.0625 -0.628141 0
-0.118528 -0.570217 0
-0.059264 -0.586235 0
-0.0625 -0.628141 0
-5.55112e-17 -0.646447 0
-0.059264 -0.586235 0
-4.85723e-17 -0.602252 0
-0.118528 -0.570217 0
-0.059264 -0.586235 0
-0.112056 -0.5306 0
-0.0560279 -0.544329 0
-0.059264 -0.586235 0
-4.85723e-17 -0.602252 0
-0.0560279 -0.544329 0
-4.16334e-17 -0.558058 0
-0.448223 -0.448223 0
-0.422335 -0.422335 0
-0.461953 -0.392195 0
-0.433776 -0.369543 0
-0.461953 -0.392195 0
[...]
POINT_DATA 8744
SCALARS solution double 1
LOOKUP_TABLE default
3.07142 3.0726 3.07185 3.07227 3.07146 3.07185 3.07264 3.07228 3.07185 3.07227 3.07228 3.07243 3.0726 3.07163 3.07227 3.07212 3.07227 3.07212 3.07243 3.07254 3.07212 3.07191 3.07254 3.07321 3.07264 3.07228 3.07162 3.07214 3.07228 3.07243 3.07214 3.07255 3.07214 3.07255 3.07194 3.07327 3.07243 3.07254 3.07255 3.0724 3.07254 3.07321 3.0724 3.07213 3.07255 3.0724 3.07327 3.07214 3.06824 3.07079 3.06999 3.07142 3.06829 3.07002 3.0709 3.07146 3.07099 3.07162 3.06855 3.07037 3.06884 3.07051 3.07146 3.07194 3.07102 3.06867 3.07163 3.07038 3.06888 3.07138 3.07051 3.07191 3.0716 3.06927 3.07213 3.07089 3.0716 3.07214 3.06922 3.07092 3.0704 3.07401 3.07079 3.07274 3.07079 3.07274 3.07142 3.07201 3.07274 3.07353 3.07201 3.0726 3.07045 3.0709 3.0742 3.07281 3.0709 3.07146 3.07281 3.07205 3.07281 3.07205 3.07361 3.07264 3.07361 3.07264 3.07285 3.07213 3.07399 3.07285 3.07044 3.07099 3.07285 3.07213 3.07099 3.07162 3.07106 3.07146 3.07481 3.07338 3.07146 3.07194 3.07338 3.0726 3.07338 3.0726 3.07421 3.07327 3.074 3.07059 3.07284 3.07102 3.07353 3.07284 3.0726 3.07211 3.07284 3.07102 3.07211 3.07163 3.07105 3.07463 3.07138 3.07333 3.07138 3.07333 3.07191 3.07256 3.07333 3.07412 3.07256 3.07321 3.07462 3.07123 3.07343 3.0716 3.07412 3.07343 3.07321 3.07267 3.07343 3.0716 3.07267 3.07213 3.07421 3.07327 3.07346 3.07271 3.07463 3.07346 3.07113 3.0716 3.07346 3.07271 3.0716 3.07214 3.06836 3.06999 3.07002 3.07084 3.06999 3.07142 3.07084 3.07163 3.07002 3.07084 3.07146 3.07166 3.07084 3.07163 3.07166 3.07185 3.07163 3.07038 3.07187 3.07121 3.07038 3.06891 3.07121 3.07051 3.07187 3.07121 3.07212 3.07202 3.07121 3.07051 3.07202 3.07191 3.07162 3.07188 3.07037 3.0712 3.07188 3.07214 3.0712 3.07204 3.07037 3.0712 3.06878 3.07051 3.0712 3.07204 3.07051 3.07194 3.0724 3.07227 3.07227 3.07159 3.07227 3.07213 3.07159 3.07089 3.07227 3.07159 3.07214 3.07092 3.07159 3.07089 3.07092 3.06935 3 3.38268 3.00025 3.31974 3.01667 3.21664 3.02162 3.18203 3.21327 3.01595 3.18034 3.01995 3.25607 3.21502 3.00891 3.0123 3.21502 3.1801 3.0123 3.01807 2.61732 3 2.69212 3.00059 2.69212 3.00059 2.75691 3.00828 2.75691 3.00828 2.8107 3.0177 2.8107 3.0177 2.85658 3.02293 3 3.38268 3.00059 3.32 3.0177 3.21738 3.02293 3.18298 3.21404 3.017 3.18131 3.0213 3 3.00254 3.38268 3.31772 3.01045 3.01656 3.26342 3.21958 3.01656 3.02376 3.21958 3.18393 3.25662 3.2158 3.00965 3.01337 3.2158 3.18108 3.01337 3.01945 2.61732 3 2.69155 3.00025 2.69155 3.00025 2.75579 3.00759 2.75579 3.00759 2.80911 3.01667 2.80911 3.01667 2.8546 3.02162 3.00006 2.69259 3.00752 2.75636 3.00752 2.75636 3.01595 2.81021 3.01595 2.81021 3.01995 2.85705 3.26172 3.20865 3.22786 3.18201 3.22786 3.18201 3.17855 3.14493 3.00891 3.0123 2.75307 2.80946 3.0123 3.01807 2.80946 2.8575 3.17961 3.22921 3.14698 3.18343 3.22921 3.26204 3.18343 3.20927 3.00043 2.69316 3.00824 2.75752 3.00824 2.75752 3.017 2.81187 3.017 2.81187 3.0213 2.85911 3.26204 3.22867 3.20927 3.18308 3.22867 3.17978 3.18308 3.14645 2.8393 2.75297 2.89018 2.81976 2.89018 2.81976 2.93546 2.87636 2.81976 2.7542 2.87636 2.82365 2.61732 2.69252 3 3.00254 2.69252 2.75726 3.00254 3.01045 2.75726 2.81143 3.01045 3.01656 2.81143 2.85697 3.01656 3.02376 3.00965 3.01337 2.75423 2.81116 3.01337 3.01945 2.81116 2.85961 2.84065 2.89049 2.75154 2.82086 2.89049 2.93573 2.82086 2.8769 2.82086 2.8769 2.7542 2.82365 2.61732 2.69197 3 3.00221 2.69197 2.75617 3.00221 3.00975 2.75617 2.80986 3.00975 3.01554 2.80986 2.85504 3.01554 3.02246 3 3.00221 3.38268 3.31746 3.00975 3.01554 3.26291 3.21883 3.01554 3.02246 3.21883 3.18297 2.91575 2.95817 2.96091 2.99912 2.95817 3.00043 2.99912 3.03204 3.14607 3.18263 3.12012 3.14453 3.18263 3.2085 3.14453 3.16312 3.12012 3.14453 3.09691 3.10997 3.14453 3.16312 3.10997 3.12233 2.91575 2.96091 2.95855 2.99958 2.95855 2.99958 3.00122 3.03266 3.14635 3.12106 3.18269 3.14403 3.18269 3.14403 3.20865 3.16311 3.14403 3.11081 3.16311 3.12193 3.20865 3.16311 3.18201 3.14376 3.16311 3.12193 3.14376 3.10935 3.18201 3.14376 3.14493 3.11884 3.14376 3.10935 3.11884 3.09538 3.00256 3.03382 2.96281 3.00252 2.96281 3.00252 2.92295 2.96814 2.92295 2.96814 2.96344 3.00322 2.96344 3.00322 3.00417 3.03533 3.14726 3.12192 3.18349 3.1448 3.18349 3.1448 3.20942 3.16387 3.1448 3.11152 3.16387 3.12264 3.2085 3.18228 3.16312 3.14414 3.18228 3.14552 3.14414 3.11941 3.16312 3.14414 3.12233 3.10971 3.14414 3.11941 3.10971 3.09592 3.00221 2.96231 3.03341 3.00196 2.96231 2.92259 3.00196 2.96749 2.92259 2.96249 2.96749 3.00227 2.96249 3.00292 3.00227 3.0338 3.00488 2.96718 3.03528 3.00546 2.96718 2.9303 3.00546 2.97532 3.20942 3.16387 3.18283 3.14454 3.16387 3.12264 3.14454 3.11007 3.18283 3.14454 3.14587 3.11972 3.14454 3.11007 3.11972 3.09616 3.00511 3.03564 2.96738 3.00574 2.96738 3.00574 2.9303 2.97532 3.02162 3.18203 3.0279 3.15503 3.0279 3.15503 3.035 3.13438 3.17869 3.22842 3.14607 3.18263 3.22842 3.2613 3.18263 3.2085 3.18034 3.01995 3.15396 3.02632 3.15396 3.02632 3.13402 3.03351 3.2613 3.22787 3.2085 3.18228 3.22787 3.17883 3.18228 3.14552 3.01995 2.85705 3.02632 2.89694 2.85705 2.71147 2.89694 2.77807 3.02632 2.89694 3.03351 2.93242 2.89694 2.77807 2.93242 2.83566 2.83566 2.74796 2.88657 2.81447 2.88657 2.81447 2.93184 2.87163 3.1801 3.15334 3.01807 3.02493 3.15334 3.13309 3.02493 3.03226 2.71505 2.85658 2.77844 2.89822 2.85658 3.02293 2.89822 3.02942 2.77844 2.89822 2.83431 2.93415 2.89822 3.02942 2.93415 3.03664 2.7504 2.83431 2.81385 2.88675 2.81385 2.88675 2.86998 2.93251 3.02293 3.18298 3.02942 3.15612 3.02942 3.15612 3.03664 3.13556 3.18131 3.0213 3.15508 3.0279 3.15508 3.0279 3.13522 3.03523 3.0213 2.85911 3.0279 2.89927 2.85911 2.71455 2.89927 2.7815 3.0279 2.89927 3.03523 2.9349 2.89927 2.7815 2.9349 2.8393 2.75271 2.81348 2.81168 2.87114 2.751 2.81168 2.83396 2.88766 2.81168 2.87114 2.88766 2.93345 2.71601 2.7786 2.85697 2.89906 2.7786 2.83396 2.89906 2.9353 2.85697 2.89906 3.02376 3.03075 2.89906 2.9353 3.03075 3.03812 3.02376 3.03075 3.18393 3.15676 3.03075 3.03812 3.15676 3.13542 3.17936 3.14726 3.22979 3.18349 3.22979 3.18349 3.26247 3.20942 3.26247 3.20942 3.22867 3.18283 3.22867 3.18283 3.1795 3.14587 3.18108 3.15448 3.01945 3.02654 3.15448 3.13431 3.02654 3.034 3.01945 3.02654 2.85961 2.89879 3.02654 3.034 2.89879 2.93436 2.85961 2.89879 2.71151 2.78131 2.89879 2.93436 2.78131 2.84065 3.02246 3.02922 3.18297 3.15565 3.02922 3.03647 3.15565 3.13423 3.17842 3.14635 3.22899 3.18269 3.22899 3.18269 3.26172 3.20865 2.71204 2.8546 2.77511 2.89597 2.8546 3.02162 2.89597 3.0279 2.77511 2.89597 2.83083 2.93175 2.89597 3.0279 2.93175 3.035 2.74552 2.83083 2.80908 2.8832 2.80908 2.8832 2.86493 2.92914 3.01807 3.02493 2.8575 2.89641 3.02493 3.03226 2.89641 2.93185 2.8575 2.89641 2.70833 2.77774 2.89641 2.93185 2.77774 2.83686 2.83686 2.88698 2.74613 2.81471 2.88698 2.93212 2.81471 2.87288 3.00043 3.03732 3.03204 3.06209 3.03732 3.06368 3.06209 3.07042 3.06209 3.07042 3.06768 3.0704 3.07493 3.07666 3.07401 3.07515 2.7464 2.80896 2.83076 2.88374 2.80896 2.86447 2.88374 2.92997 2.71307 2.77541 2.85504 2.89686 2.77541 2.83076 2.89686 2.93285 2.85504 2.89686 3.02246 3.02922 2.89686 2.93285 3.02922 3.03647 3.00122 3.03266 3.0383 3.06334 3.0383 3.06334 3.06437 3.07034 3.06334 3.06777 3.07034 3.07045 3.07507 3.0742 3.07693 3.07528 3.07656 3.07527 3.07497 3.07399 3.06316 3.07057 3.03775 3.06253 3.07057 3.07044 3.06253 3.06806 3.03775 3.06253 3.00256 3.03382 2.81348 2.87215 2.87114 2.91983 2.87215 2.92295 2.91983 2.96344 2.87114 2.91983 2.93345 2.97041 2.91983 2.96344 2.97041 3.00417 3.07569 3.07481 3.07754 3.07589 3.07654 3.07496 3.07519 3.074 3.06339 3.03762 3.07072 3.06182 3.03762 3.00221 3.06182 3.03341 3.07072 3.06182 3.07059 3.06812 3.00292 3.03884 3.0338 3.06295 3.03884 3.06472 3.06295 3.07111 3.06295 3.07111 3.06838 3.07105 3.06446 3.03921 3.0714 3.0627 3.03921 3.00488 3.0627 3.03528 3.0714 3.0627 3.07123 3.0688 3.07719 3.07589 3.07561 3.07463 3.06425 3.07128 3.03932 3.06342 3.07128 3.07113 3.06342 3.06879 3.03932 3.06342 3.00511 3.03564 2.93573 2.97198 2.8769 2.92464 2.97198 3.00511 2.92464 2.96738 2.8769 2.92464 2.82365 2.8806 2.92464 2.96738 2.8806 2.9303 3.06487 3.06695 3.06668 3.06824 3.06491 3.06668 3.06701 3.06829 3.06728 3.06855 3.06554 3.06719 3.06559 3.06728 3.06762 3.06884 3.06741 3.06563 3.06867 3.0673 3.14698 3.18343 3.12096 3.1453 3.18343 3.20927 3.1453 3.16387 3.12096 3.1453 3.09767 3.11067 3.1453 3.16387 3.11067 3.12303 3.07555 3.07728 3.07463 3.07576 3.06566 3.06765 3.06737 3.06888 3.20927 3.18308 3.16387 3.14492 3.18308 3.14645 3.14492 3.12027 3.16387 3.14492 3.12303 3.11042 3.14492 3.12027 3.11042 3.09667 3.07715 3.07559 3.0758 3.07462 3.06807 3.06636 3.06927 3.06794 3.06802 3.06922 3.06636 3.06793 3.035 3.13438 3.04266 3.11604 3.13438 3.21666 3.11604 3.17869 3.04266 3.11604 3.05037 3.10172 3.11604 3.17869 3.10172 3.14607 3.2147 3.13402 3.17883 3.11504 3.13402 3.03351 3.11504 3.04153 3.17883 3.11504 3.14552 3.1009 3.11504 3.04153 3.1009 3.0496 3.03351 2.93242 3.04153 2.96403 2.93242 2.83566 2.96403 2.88657 3.04153 2.96403 3.0496 2.99271 2.96403 2.88657 2.99271 2.93184 3.21429 3.17855 3.13309 3.11414 3.17855 3.14493 3.11414 3.10007 3.13309 3.11414 3.03226 3.04044 3.11414 3.10007 3.04044 3.04884 2.83431 2.93415 2.88675 2.96565 2.93415 3.03664 2.96565 3.04432 2.88675 2.96565 2.93251 2.99431 2.96565 3.04432 2.99431 3.0519 3.03664 3.13556 3.04432 3.11723 3.13556 3.21755 3.11723 3.17961 3.04432 3.11723 3.0519 3.10285 3.11723 3.17961 3.10285 3.14698 3.21562 3.13522 3.17978 3.11627 3.13522 3.03523 3.11627 3.04326 3.17978 3.11627 3.14645 3.10206 3.11627 3.04326 3.10206 3.0512 3.03523 2.9349 3.04326 2.96655 2.9349 2.8393 2.96655 2.89018 3.04326 2.96655 3.0512 2.99506 2.96655 2.89018 2.99506 2.93546 2.83396 2.88766 2.9353 2.96683 2.88766 2.93345 2.96683 2.99565 2.9353 2.96683 3.03812 3.04565 2.96683 2.99565 3.04565 3.05307 3.03812 3.04565 3.13542 3.11795 3.04565 3.05307 3.11795 3.10351 3.13542 3.11795 3.21927 3.17936 3.11795 3.10351 3.17936 3.14726 3.21522 3.1795 3.13431 3.11538 3.1795 3.14587 3.11538 3.10125 3.13431 3.11538 3.034 3.04218 3.11538 3.10125 3.04218 3.05045 3.034 3.04218 2.93436 2.96628 3.04218 3.05045 2.96628 2.99487 2.93436 2.96628 2.84065 2.89049 2.96628 2.99487 2.89049 2.93573 3.03647 3.04396 3.13423 3.11674 3.04396 3.0515 3.11674 3.10237 3.13423 3.11674 3.21836 3.17842 3.11674 3.10237 3.17842 3.14635 2.83083 2.93175 2.8832 2.96325 2.93175 3.035 2.96325 3.04266 2.8832 2.96325 2.92914 2.99207 2.96325 3.04266 2.99207 3.05037 3.03226 3.04044 2.93185 2.96373 3.04044 3.04884 2.96373 2.99255 2.93185 2.96373 2.83686 2.88698 2.96373 2.99255 2.88698 2.93212 2.81063 2.86493 2.86537 2.91423 2.86493 2.92914 2.91423 2.96616 2.86537 2.91423 2.91575 2.95817 2.91423 2.96616 2.95817 3.00043 2.92914 2.99207 2.96616 3.015 2.99207 3.05037 3.015 3.0567 2.96616 3.015 3.00043 3.03732 3.015 3.0567 3.03732 3.06368 3.05037 3.10172 3.0567 3.09109 3.10172 3.14607 3.09109 3.12012 3.0567 3.09109 3.06368 3.08186 3.09109 3.12012 3.08186 3.09691 3.06368 3.08186 3.07042 3.07298 3.08186 3.09691 3.07298 3.07493 3.07042 3.07298 3.0704 3.07221 3.07298 3.07493 3.07221 3.07401 2.83076 2.88374 2.93285 2.9644 2.88374 2.92997 2.9644 2.99325 2.93285 2.9644 3.03647 3.04396 2.9644 2.99325 3.04396 3.0515 2.81063 2.86537 2.86447 2.91441 2.86537 2.91575 2.91441 2.95855 2.86447 2.91441 2.92997 2.96696 2.91441 2.95855 2.96696 3.00122 2.92997 2.96696 2.99325 3.01607 2.96696 3.00122 3.01607 3.0383 2.99325 3.01607 3.0515 3.05765 3.01607 3.0383 3.05765 3.06437 3.0515 3.05765 3.10237 3.09167 3.05765 3.06437 3.09167 3.08235 3.10237 3.09167 3.14635 3.12106 3.09167 3.08235 3.12106 3.09698 3.06437 3.07034 3.08235 3.07314 3.07034 3.07045 3.07314 3.07232 3.08235 3.07314 3.09698 3.07507 3.07314 3.07232 3.07507 3.0742 3.14493 3.11884 3.10007 3.0897 3.11884 3.09538 3.0897 3.08106 3.10007 3.0897 3.04884 3.05575 3.0897 3.08106 3.05575 3.06316 3.09538 3.07497 3.08106 3.07275 3.07497 3.07399 3.07275 3.07221 3.08106 3.07275 3.06316 3.07057 3.07275 3.07221 3.07057 3.07044 3.04884 3.05575 2.99255 3.01538 3.05575 3.06316 3.01538 3.03775 2.99255 3.01538 2.93212 2.96883 3.01538 3.03775 2.96883 3.00256 2.93212 2.96883 2.87288 2.91981 2.96883 3.00256 2.91981 2.96281 2.87288 2.91981 2.81348 2.87215 2.91981 2.96281 2.87215 2.92295 2.93345 2.97041 2.99565 3.01816 2.97041 3.00417 3.01816 3.03989 2.99565 3.01816 3.05307 3.059 3.01816 3.03989 3.059 3.06535 3.00417 3.03533 3.03989 3.06367 3.03533 3.06611 3.06367 3.06847 3.03989 3.06367 3.06535 3.07107 3.06367 3.06847 3.07107 3.07106 3.05307 3.059 3.10351 3.09269 3.059 3.06535 3.09269 3.08319 3.10351 3.09269 3.14726 3.12192 3.09269 3.08319 3.12192 3.09773 3.06535 3.07107 3.08319 3.07376 3.07107 3.07106 3.07376 3.07293 3.08319 3.07376 3.09773 3.07569 3.07376 3.07293 3.07569 3.07481 3.14552 3.1009 3.11941 3.09034 3.1009 3.0496 3.09034 3.05622 3.11941 3.09034 3.09592 3.08146 3.09034 3.05622 3.08146 3.06339 3.09592 3.08146 3.07496 3.07293 3.08146 3.06339 3.07293 3.07072 3.07496 3.07293 3.074 3.0723 3.07293 3.07072 3.0723 3.07059 3.0496 2.99271 3.05622 3.01547 2.99271 2.93184 3.01547 2.96852 3.05622 3.01547 3.06339 3.03762 3.01547 2.96852 3.03762 3.00221 2.93184 2.87163 2.96852 2.91924 2.87163 2.81531 2.91924 2.87224 2.96852 2.91924 3.00221 2.96231 2.91924 2.87224 2.96231 2.92259 2.81531 2.86998 2.87224 2.91896 2.86998 2.93251 2.91896 2.96924 2.87224 2.91896 2.92259 2.96249 2.91896 2.96924 2.96249 3.00292 2.93251 2.99431 2.96924 3.01695 2.99431 3.0519 3.01695 3.05803 2.96924 3.01695 3.00292 3.03884 3.01695 3.05803 3.03884 3.06472 3.0512 2.99506 3.05761 3.01753 2.99506 2.93546 3.01753 2.9718 3.05761 3.01753 3.06446 3.03921 3.01753 2.9718 3.03921 3.00488 2.93546 2.87636 2.9718 2.92437 2.87636 2.82365 2.92437 2.8806 2.9718 2.92437 3.00488 2.96718 2.92437 2.8806 2.96718 2.9303 3.14587 3.11972 3.10125 3.09076 3.11972 3.09616 3.09076 3.08194 3.10125 3.09076 3.05045 3.05715 3.09076 3.08194 3.05715 3.06425 3.09616 3.07561 3.08194 3.07343 3.07561 3.07463 3.07343 3.07288 3.08194 3.07343 3.06425 3.07128 3.07343 3.07288 3.07128 3.07113 3.05045 3.05715 2.99487 3.01742 3.05715 3.06425 3.01742 3.03932 2.99487 3.01742 2.93573 2.97198 3.01742 3.03932 2.97198 3.00511 3.06546 3.06768 3.06695 3.06879 3.06768 3.0704 3.06879 3.0706 3.06695 3.06879 3.06824 3.06952 3.06879 3.0706 3.06952 3.07079 3.06525 3.06668 3.06695 3.06809 3.06668 3.06824 3.06809 3.06912 3.06695 3.06809 3.06836 3.06918 3.06809 3.06912 3.06918 3.06999 3.06525 3.06695 3.06668 3.06811 3.06695 3.06836 3.06811 3.06919 3.06668 3.06811 3.06829 3.06915 3.06811 3.06919 3.06915 3.07002 3.06558 3.06701 3.06777 3.06886 3.06701 3.06829 3.06886 3.06959 3.06777 3.06886 3.07045 3.07067 3.06886 3.06959 3.07067 3.0709 3.07044 3.07071 3.06806 3.06904 3.07071 3.07099 3.06904 3.06977 3.06806 3.06904 3.06587 3.06728 3.06904 3.06977 3.06728 3.06855 3.06855 3.06946 3.06719 3.0685 3.06946 3.07037 3.0685 3.06957 3.06719 3.0685 3.06584 3.0675 3.0685 3.06957 3.0675 3.06878 3.06584 3.0675 3.06728 3.06862 3.0675 3.06878 3.06862 3.06964 3.06728 3.06862 3.06884 3.06968 3.06862 3.06964 3.06968 3.07051 3.06611 3.06762 3.06847 3.06946 3.06762 3.06884 3.06946 3.07015 3.06847 3.06946 3.07106 3.07126 3.06946 3.07015 3.07126 3.07146 3.07059 3.06812 3.0708 3.06914 3.06812 3.06594 3.06914 3.06741 3.0708 3.06914 3.07102 3.06984 3.06914 3.06741 3.06984 3.06867 3.06867 3.0673 3.06953 3.06861 3.0673 3.066 3.06861 3.06762 3.06953 3.06861 3.07038 3.06964 3.06861 3.06762 3.06964 3.06891 3.0519 3.10285 3.05803 3.0921 3.10285 3.14698 3.0921 3.12096 3.05803 3.0921 3.06472 3.08271 3.0921 3.12096 3.08271 3.09767 3.06472 3.08271 3.07111 3.07362 3.08271 3.09767 3.07362 3.07555 3.07111 3.07362 3.07105 3.07284 3.07362 3.07555 3.07284 3.07463 3.06622 3.06838 3.06765 3.06944 3.06838 3.07105 3.06944 3.07122 3.06765 3.06944 3.06888 3.07013 3.06944 3.07122 3.07013 3.07138 3.066 3.06737 3.06762 3.0687 3.06737 3.06888 3.0687 3.06969 3.06762 3.0687 3.06891 3.06971 3.0687 3.06969 3.06971 3.07051 3.14645 3.10206 3.12027 3.09138 3.10206 3.0512 3.09138 3.05761 3.12027 3.09138 3.09667 3.08231 3.09138 3.05761 3.08231 3.06446 3.09667 3.08231 3.07559 3.07357 3.08231 3.06446 3.07357 3.0714 3.07559 3.07357 3.07462 3.07292 3.07357 3.0714 3.07292 3.07123 3.07123 3.0688 3.07141 3.06977 3.0688 3.06667 3.06977 3.06807 3.07141 3.06977 3.0716 3.07043 3.06977 3.06807 3.07043 3.06927 3.06927 3.06794 3.07008 3.06915 3.06794 3.06662 3.06915 3.06823 3.07008 3.06915 3.07089 3.07012 3.06915 3.06823 3.07012 3.06935 3.07113 3.07137 3.06879 3.06973 3.07137 3.0716 3.06973 3.07041 3.06879 3.06973 3.06667 3.06802 3.06973 3.07041 3.06802 3.06922 3.06922 3.07007 3.06793 3.06915 3.07007 3.07092 3.06915 3.07014 3.06793 3.06915 3.06662 3.06823 3.06915 3.07014 3.06823 3.06935 3.07401 3.07515 3.07338 3.07406 3.07515 3.07588 3.07406 3.07444 3.07338 3.07406 3.07274 3.07313 3.07406 3.07444 3.07313 3.07353 3.0742 3.0735 3.07528 3.07417 3.0735 3.07281 3.07417 3.07321 3.07528 3.07417 3.07601 3.07453 3.07417 3.07321 3.07453 3.07361 3.07601 3.07453 3.07527 3.07414 3.07453 3.07361 3.07414 3.07323 3.07527 3.07414 3.07399 3.07342 3.07414 3.07323 3.07342 3.07285 3.07481 3.0741 3.07589 3.07477 3.0741 3.07338 3.07477 3.0738 3.07589 3.07477 3.07663 3.07514 3.07477 3.0738 3.07514 3.07421 3.07588 3.07519 3.07444 3.07409 3.07519 3.074 3.07409 3.07342 3.07444 3.07409 3.07353 3.07318 3.07409 3.07342 3.07318 3.07284 3.07463 3.07576 3.07398 3.07466 3.07576 3.07649 3.07466 3.07504 3.07398 3.07466 3.07333 3.07372 3.07466 3.07504 3.07372 3.07412 3.07649 3.0758 3.07504 3.07469 3.0758 3.07462 3.07469 3.07402 3.07504 3.07469 3.07412 3.07377 3.07469 3.07402 3.07377 3.07343 3.07663 3.07514 3.07589 3.07475 3.07514 3.07421 3.07475 3.07383 3.07589 3.07475 3.07463 3.07404 3.07475 3.07383 3.07404 3.07346 3.92388 3.98079 3.84019 3.89488 3.98079 4 3.89488 3.9181 3.84019 3.89488 3.76324 3.81241 4 3.98079 3.9181 3.89473 3.98079 3.92388 3.89473 3.83885 3.98079 3.8984 3.92388 3.83813 2.14691 2.17956 2.21479 2.25062 2.17956 2.2342 2.25062 2.3061 2.21479 2.25062 2.27904 2.3176 2.25062 2.3061 2.3176 2.37339 3.92388 3.98079 3.84026 3.89495 3.98079 4 3.89495 3.91817 3.84026 3.89495 3.76339 3.81255 4 3.98079 3.91817 3.8948 3.98079 3.92388 3.8948 3.83893 3.92388 3.83991 3.98079 3.89635 3.83991 3.76353 3.89635 3.81053 3.98079 3.89635 4 3.91343 3.98079 3.89847 3.92388 3.8382 2.23378 2.17943 2.30547 2.25047 2.17943 2.14691 2.25047 2.21479 2.30547 2.25047 2.37271 2.31737 2.25047 2.21479 2.31737 2.27904 3.92388 3.83983 3.98079 3.89628 3.83983 3.76338 3.89628 3.81039 3.98079 3.89628 4 3.91336 3.70711 3.83147 3.64316 3.75472 3.83147 3.92388 3.75472 3.84019 3.64316 3.75472 3.58426 3.6837 3.75472 3.84019 3.6837 3.76324 3.58426 3.6837 3.52992 3.61985 3.6837 3.76324 3.61985 3.69168 3.52992 3.61985 3.47996 3.56097 3.61985 3.69168 3.56097 3.62594 3.76324 3.81241 3.69168 3.74062 3.81241 3.84143 3.74062 3.76978 3.69168 3.74062 3.62594 3.67366 3.74062 3.76978 3.67366 3.70344 3.47996 3.56097 3.43405 3.50824 3.56097 3.62594 3.50824 3.56827 3.43405 3.50824 3.39196 3.45975 3.50824 3.56827 3.45975 3.5151 3.62594 3.67366 3.56827 3.6131 3.67366 3.70344 3.6131 3.64182 3.56827 3.6131 3.5151 3.55705 3.6131 3.64182 3.55705 3.58468 3.39196 3.45975 3.35357 3.41525 3.45975 3.5151 3.41525 3.46613 3.35357 3.41525 3.31852 3.37452 3.41525 3.46613 3.37452 3.42113 3.5151 3.55705 3.46613 3.50528 3.55705 3.58468 3.50528 3.53177 3.46613 3.50528 3.42113 3.45755 3.50528 3.53177 3.45755 3.48286 3.92388 3.83147 3.83885 3.75444 3.83147 3.70711 3.75444 3.6429 3.83885 3.75444 3.76428 3.68289 3.75444 3.6429 3.68289 3.58346 3.84143 3.81342 3.76978 3.74115 3.81342 3.76428 3.74115 3.69178 3.76978 3.74115 3.70344 3.67382 3.74115 3.69178 3.67382 3.62565 3.76428 3.68289 3.69178 3.61912 3.68289 3.58346 3.61912 3.52855 3.69178 3.61912 3.62565 3.56004 3.61912 3.52855 3.56004 3.47817 3.70344 3.67382 3.64182 3.61303 3.67382 3.62565 3.61303 3.5678 3.64182 3.61303 3.58468 3.55685 3.61303 3.5678 3.55685 3.51448 3.62565 3.56004 3.5678 3.50713 3.56004 3.47817 3.50713 3.43203 3.5678 3.50713 3.51448 3.45853 3.50713 3.43203 3.45853 3.38988 3.58468 3.55685 3.53